# vtk DataFile Version 3.0
Finite Element Mesh
ASCII
DATASET UNSTRUCTURED_GRID
POINTS 30 float
0.000000 0.000000 0.0
0.250000 0.000000 0.0
0.500000 0.000000 0.0
0.000000 0.240000 0.0
0.250000 0.240000 0.0
0.500000 0.240000 0.0
0.000000 0.480000 0.0
0.250000 0.480000 0.0
0.500000 0.480000 0.0
0.000000 0.720000 0.0
0.250000 0.720000 0.0
0.500000 0.720000 0.0
0.000000 0.960000 0.0
0.250000 0.960000 0.0
0.500000 0.960000 0.0
0.000000 1.200000 0.0
0.250000 1.200000 0.0
0.500000 1.200000 0.0
0.000000 1.440000 0.0
0.250000 1.440000 0.0
0.500000 1.440000 0.0
0.000000 1.680000 0.0
0.250000 1.680000 0.0
0.500000 1.680000 0.0
0.000000 1.920000 0.0
0.250000 1.920000 0.0
0.500000 1.920000 0.0
0.000000 2.160000 0.0
0.250000 2.160000 0.0
0.500000 2.160000 0.0
CELLS 18 90
4 0 1 4 3
4 1 2 5 4
4 3 4 7 6
4 4 5 8 7
4 6 7 10 9
4 7 8 11 10
4 9 10 13 12
4 10 11 14 13
4 12 13 16 15
4 13 14 17 16
4 15 16 19 18
4 16 17 20 19
4 18 19 22 21
4 19 20 23 22
4 21 22 25 24
4 22 23 26 25
4 24 25 28 27
4 25 26 29 28
CELL_TYPES 18
9
9
9
9
9
9
9
9
9
9
9
9
9
9
9
9
9
9
POINT_DATA 30
SCALARS temperature float 1
LOOKUP_TABLE default
445.391440
21.645169
132.126079
248.178628
66.424504
113.795998
67.589605
107.398911
96.730938
107.548967
98.946737
101.295226
95.509393
97.278770
96.950320
115.050648
114.987060
114.090569
29.562824
28.153585
33.085054
429.958656
436.744079
413.061827
452.258398
425.819633
538.466833
-6.109478
-124.581025
324.964272
