# vtk DataFile Version 3.0
Finite Element Mesh
ASCII
DATASET UNSTRUCTURED_GRID
POINTS 30 float
0.000000 0.000000 0.0
0.250000 0.000000 0.0
0.500000 0.000000 0.0
0.000000 0.240000 0.0
0.250000 0.240000 0.0
0.500000 0.240000 0.0
0.000000 0.480000 0.0
0.250000 0.480000 0.0
0.500000 0.480000 0.0
0.000000 0.720000 0.0
0.250000 0.720000 0.0
0.500000 0.720000 0.0
0.000000 0.960000 0.0
0.250000 0.960000 0.0
0.500000 0.960000 0.0
0.000000 1.200000 0.0
0.250000 1.200000 0.0
0.500000 1.200000 0.0
0.000000 1.440000 0.0
0.250000 1.440000 0.0
0.500000 1.440000 0.0
0.000000 1.680000 0.0
0.250000 1.680000 0.0
0.500000 1.680000 0.0
0.000000 1.920000 0.0
0.250000 1.920000 0.0
0.500000 1.920000 0.0
0.000000 2.160000 0.0
0.250000 2.160000 0.0
0.500000 2.160000 0.0
CELLS 18 90
4 0 1 4 3
4 1 2 5 4
4 3 4 7 6
4 4 5 8 7
4 6 7 10 9
4 7 8 11 10
4 9 10 13 12
4 10 11 14 13
4 12 13 16 15
4 13 14 17 16
4 15 16 19 18
4 16 17 20 19
4 18 19 22 21
4 19 20 23 22
4 21 22 25 24
4 22 23 26 25
4 24 25 28 27
4 25 26 29 28
CELL_TYPES 18
9
9
9
9
9
9
9
9
9
9
9
9
9
9
9
9
9
9
POINT_DATA 30
SCALARS temperature float 1
LOOKUP_TABLE default
385.994988
31.747326
129.335434
219.396020
71.570080
112.259176
72.719373
106.441783
97.000107
106.762426
99.138063
101.273214
95.696717
97.339448
97.069177
113.655976
113.605547
112.648878
39.827346
38.443833
43.299619
368.001740
374.424860
352.450229
390.131219
364.828522
464.472477
10.578032
-93.246388
280.180835
