# vtk DataFile Version 3.0
Finite Element Mesh
ASCII
DATASET UNSTRUCTURED_GRID
POINTS 30 float
0.000000 0.000000 0.0
0.250000 0.000000 0.0
0.500000 0.000000 0.0
0.000000 0.240000 0.0
0.250000 0.240000 0.0
0.500000 0.240000 0.0
0.000000 0.480000 0.0
0.250000 0.480000 0.0
0.500000 0.480000 0.0
0.000000 0.720000 0.0
0.250000 0.720000 0.0
0.500000 0.720000 0.0
0.000000 0.960000 0.0
0.250000 0.960000 0.0
0.500000 0.960000 0.0
0.000000 1.200000 0.0
0.250000 1.200000 0.0
0.500000 1.200000 0.0
0.000000 1.440000 0.0
0.250000 1.440000 0.0
0.500000 1.440000 0.0
0.000000 1.680000 0.0
0.250000 1.680000 0.0
0.500000 1.680000 0.0
0.000000 1.920000 0.0
0.250000 1.920000 0.0
0.500000 1.920000 0.0
0.000000 2.160000 0.0
0.250000 2.160000 0.0
0.500000 2.160000 0.0
CELLS 18 90
4 0 1 4 3
4 1 2 5 4
4 3 4 7 6
4 4 5 8 7
4 6 7 10 9
4 7 8 11 10
4 9 10 13 12
4 10 11 14 13
4 12 13 16 15
4 13 14 17 16
4 15 16 19 18
4 16 17 20 19
4 18 19 22 21
4 19 20 23 22
4 21 22 25 24
4 22 23 26 25
4 24 25 28 27
4 25 26 29 28
CELL_TYPES 18
9
9
9
9
9
9
9
9
9
9
9
9
9
9
9
9
9
9
POINT_DATA 30
SCALARS temperature float 1
LOOKUP_TABLE default
149.939630
86.308868
106.614981
118.972839
94.822401
102.522989
95.071705
101.287070
99.306879
101.446340
99.853598
100.341608
98.935113
99.316711
99.279000
102.968360
102.980377
102.647698
88.756058
88.325456
89.741299
143.657675
145.426160
139.894563
149.947057
143.159898
164.837434
83.737788
63.001828
127.789692
