# vtk DataFile Version 3.0
Finite Element Mesh
ASCII
DATASET UNSTRUCTURED_GRID
POINTS 30 float
0.000000 0.000000 0.0
0.250000 0.000000 0.0
0.500000 0.000000 0.0
0.000000 0.240000 0.0
0.250000 0.240000 0.0
0.500000 0.240000 0.0
0.000000 0.480000 0.0
0.250000 0.480000 0.0
0.500000 0.480000 0.0
0.000000 0.720000 0.0
0.250000 0.720000 0.0
0.500000 0.720000 0.0
0.000000 0.960000 0.0
0.250000 0.960000 0.0
0.500000 0.960000 0.0
0.000000 1.200000 0.0
0.250000 1.200000 0.0
0.500000 1.200000 0.0
0.000000 1.440000 0.0
0.250000 1.440000 0.0
0.500000 1.440000 0.0
0.000000 1.680000 0.0
0.250000 1.680000 0.0
0.500000 1.680000 0.0
0.000000 1.920000 0.0
0.250000 1.920000 0.0
0.500000 1.920000 0.0
0.000000 2.160000 0.0
0.250000 2.160000 0.0
0.500000 2.160000 0.0
CELLS 18 90
4 0 1 4 3
4 1 2 5 4
4 3 4 7 6
4 4 5 8 7
4 6 7 10 9
4 7 8 11 10
4 9 10 13 12
4 10 11 14 13
4 12 13 16 15
4 13 14 17 16
4 15 16 19 18
4 16 17 20 19
4 18 19 22 21
4 19 20 23 22
4 21 22 25 24
4 22 23 26 25
4 24 25 28 27
4 25 26 29 28
CELL_TYPES 18
9
9
9
9
9
9
9
9
9
9
9
9
9
9
9
9
9
9
POINT_DATA 30
SCALARS temperature float 1
LOOKUP_TABLE default
416.694959
26.290052
130.961495
234.059296
68.852112
113.118386
70.028517
106.958497
96.842833
107.204761
99.040073
101.296609
95.560372
97.280449
96.979544
114.464751
114.405955
113.470922
34.363977
32.959389
37.891153
399.708195
406.352507
383.377769
422.127034
396.059409
502.769446
1.815641
-110.019379
302.952259
