# vtk DataFile Version 3.0
Finite Element Mesh
ASCII
DATASET UNSTRUCTURED_GRID
POINTS 30 float
0.000000 0.000000 0.0
0.250000 0.000000 0.0
0.500000 0.000000 0.0
0.000000 0.240000 0.0
0.250000 0.240000 0.0
0.500000 0.240000 0.0
0.000000 0.480000 0.0
0.250000 0.480000 0.0
0.500000 0.480000 0.0
0.000000 0.720000 0.0
0.250000 0.720000 0.0
0.500000 0.720000 0.0
0.000000 0.960000 0.0
0.250000 0.960000 0.0
0.500000 0.960000 0.0
0.000000 1.200000 0.0
0.250000 1.200000 0.0
0.500000 1.200000 0.0
0.000000 1.440000 0.0
0.250000 1.440000 0.0
0.500000 1.440000 0.0
0.000000 1.680000 0.0
0.250000 1.680000 0.0
0.500000 1.680000 0.0
0.000000 1.920000 0.0
0.250000 1.920000 0.0
0.500000 1.920000 0.0
0.000000 2.160000 0.0
0.250000 2.160000 0.0
0.500000 2.160000 0.0
CELLS 18 90
4 0 1 4 3
4 1 2 5 4
4 3 4 7 6
4 4 5 8 7
4 6 7 10 9
4 7 8 11 10
4 9 10 13 12
4 10 11 14 13
4 12 13 16 15
4 13 14 17 16
4 15 16 19 18
4 16 17 20 19
4 18 19 22 21
4 19 20 23 22
4 21 22 25 24
4 22 23 26 25
4 24 25 28 27
4 25 26 29 28
CELL_TYPES 18
9
9
9
9
9
9
9
9
9
9
9
9
9
9
9
9
9
9
POINT_DATA 30
SCALARS temperature float 1
LOOKUP_TABLE default
353.134263
38.092939
127.195968
204.170312
74.593212
111.205246
75.677608
105.841287
97.209346
106.212148
99.241182
101.220730
95.928661
97.462549
97.225982
112.605030
112.566025
111.610015
45.991336
44.651454
49.335815
334.776789
340.876864
320.255529
356.128287
332.064227
423.339680
20.224610
-74.108033
256.643962
